VARIABLES = "bangle (rad)", "impact (km)", "ln|U|"
ZONE I=   64 J=  964 F=POINT
    0.3276496280E-01    -0.2749861480E+02    -0.3455540018E+01
    0.3307755518E-01    -0.2655767249E+02    -0.3455540018E+01
    0.3339029117E-01    -0.2561672621E+02    -0.3455540018E+01
    0.3370317099E-01    -0.2467577598E+02    -0.3455540018E+01
    0.3401619490E-01    -0.2373482177E+02    -0.3455540018E+01
    0.3432936315E-01    -0.2279386360E+02    -0.3455540018E+01
    0.3464267597E-01    -0.2185290144E+02    -0.3455540018E+01
    0.3495613362E-01    -0.2091193529E+02    -0.3455540018E+01
    0.3526973635E-01    -0.1997096516E+02    -0.3455540018E+01
    0.3558348440E-01    -0.1902999102E+02    -0.3455540018E+01
    0.3589737801E-01    -0.1808901288E+02    -0.3455540018E+01
    0.3621141745E-01    -0.1714803072E+02    -0.3455540018E+01
    0.3652560297E-01    -0.1620704455E+02    -0.3455540018E+01
    0.3683993480E-01    -0.1526605435E+02    -0.3455540018E+01
    0.3715441321E-01    -0.1432506012E+02    -0.3455540018E+01
    0.3746903845E-01    -0.1338406185E+02    -0.3455540018E+01
    0.3778381076E-01    -0.1244305954E+02    -0.3455540018E+01
    0.3809873041E-01    -0.1150205318E+02    -0.3455540018E+01
    0.3841379765E-01    -0.1056104276E+02    -0.3455540018E+01
    0.3872901274E-01    -0.9620028273E+01    -0.3455540018E+01
    0.3904437592E-01    -0.8679009720E+01    -0.2981971981E+01
    0.3935988747E-01    -0.7737987091E+01    -0.2797787205E+01
    0.3967554762E-01    -0.6796960378E+01    -0.3205904423E+01
    0.3999135665E-01    -0.5855929576E+01    -0.3171361499E+01
    0.4030731482E-01    -0.4914894678E+01    -0.2539944891E+01
    0.4062342237E-01    -0.3973855676E+01    -0.2700254982E+01
    0.4093967958E-01    -0.3032812566E+01    -0.1953214796E+01
    0.4125608670E-01    -0.2091765339E+01    -0.1631714590E+01
    0.4157264400E-01    -0.1150713989E+01    -0.2030492580E+01
    0.4188935174E-01    -0.2096585106E+00    -0.2014263715E+01
    0.4220621018E-01     0.7314011043E+00    -0.9734972608E+00
    0.4252321959E-01     0.1672464862E+01    -0.1941212310E+00
    0.4284038022E-01     0.2613532769E+01    -0.1110223025E-15
    0.4315769236E-01     0.3554604833E+01    -0.5262502076E+00
    0.4347515626E-01     0.4495681059E+01    -0.9632431569E+00
    0.4379277219E-01     0.5436761455E+01    -0.2082880487E+01
    0.4411054042E-01     0.6377846028E+01    -0.1410936804E+01
    0.4442846121E-01     0.7318934785E+01    -0.1872476539E+01
    0.4474653485E-01     0.8260027731E+01    -0.2899225310E+01
    0.4506476159E-01     0.9201124875E+01    -0.3455540018E+01
    0.4538314171E-01     0.1014222622E+02    -0.2408862285E+01
    0.4570167549E-01     0.1108333178E+02    -0.2503135664E+01
    0.4602036319E-01     0.1202444156E+02    -0.2959232557E+01
    0.4633920508E-01     0.1296555556E+02    -0.2772428558E+01
    0.4665820145E-01     0.1390667379E+02    -0.3455540018E+01
    0.4697735256E-01     0.1484779626E+02    -0.3455540018E+01
    0.4729665870E-01     0.1578892298E+02    -0.3455540018E+01
    0.4761612014E-01     0.1673005395E+02    -0.3455540018E+01
    0.4793573716E-01     0.1767118918E+02    -0.3455540018E+01
    0.4825551003E-01     0.1861232868E+02    -0.3455540018E+01
    0.4857543903E-01     0.1955347245E+02    -0.3455540018E+01
    0.4889552445E-01     0.2049462050E+02    -0.3455540018E+01
    0.4921576657E-01     0.2143577284E+02    -0.3455540018E+01
    0.4953616567E-01     0.2237692948E+02    -0.3455540018E+01
    0.4985672202E-01     0.2331809042E+02    -0.3455540018E+01
    0.5017743592E-01     0.2425925566E+02    -0.3455540018E+01
    0.5049830764E-01     0.2520042523E+02    -0.3455540018E+01
    0.5081933748E-01     0.2614159912E+02    -0.3455540018E+01
    0.5114052572E-01     0.2708277734E+02    -0.3455540018E+01
    0.5146187264E-01     0.2802395989E+02    -0.3455540018E+01
    0.5178337853E-01     0.2896514680E+02    -0.3455540018E+01
    0.5210504368E-01     0.2990633806E+02    -0.3455540018E+01
    0.5242686839E-01     0.3084753367E+02    -0.3455540018E+01
    0.5274885293E-01     0.3178873366E+02    -0.3455540018E+01
    0.3268448095E-01    -0.2749180615E+02    -0.2261931115E+01
    0.3299702962E-01    -0.2655099953E+02    -0.2261931115E+01
    0.3330972185E-01    -0.2561018895E+02    -0.2261931115E+01
    0.3362255788E-01    -0.2466937442E+02    -0.2261931115E+01
    0.3393553796E-01    -0.2372855591E+02    -0.2261931115E+01
    0.3424866234E-01    -0.2278773343E+02    -0.2261931115E+01
    0.3456193125E-01    -0.2184690697E+02    -0.2261931115E+01
    0.3487534495E-01    -0.2090607653E+02    -0.2261931115E+01
    0.3518890369E-01    -0.1996524209E+02    -0.2261931115E+01
    0.3550260771E-01    -0.1902440365E+02    -0.2261931115E+01
    0.3581645726E-01    -0.1808356121E+02    -0.2261931115E+01
    0.3613045259E-01    -0.1714271475E+02    -0.2261931115E+01
    0.3644459396E-01    -0.1620186428E+02    -0.2261931115E+01
    0.3675888160E-01    -0.1526100978E+02    -0.2261931115E+01
    0.3707331579E-01    -0.1432015125E+02    -0.2261931115E+01
    0.3738789676E-01    -0.1337928868E+02    -0.2261931115E+01
    0.3770262476E-01    -0.1243842207E+02    -0.2261931115E+01
    0.3801750007E-01    -0.1149755141E+02    -0.2261931115E+01
    0.3833252292E-01    -0.1055667669E+02    -0.2261931115E+01
    0.3864769357E-01    -0.9615797904E+01    -0.2261931115E+01
    0.3896301229E-01    -0.8674915052E+01    -0.2261931115E+01
    0.3927847932E-01    -0.7734028123E+01    -0.2261931115E+01
    0.3959409493E-01    -0.6793137111E+01    -0.2261931115E+01
    0.3990985937E-01    -0.5852242010E+01    -0.2261931115E+01
    0.4022577290E-01    -0.4911342813E+01    -0.2217759100E+01
    0.4054183578E-01    -0.3970439513E+01    -0.2261931115E+01
    0.4085804827E-01    -0.3029532103E+01    -0.2261931115E+01
    0.4117441064E-01    -0.2088620578E+01    -0.2261931115E+01
    0.4149092314E-01    -0.1147704930E+01    -0.1603247877E+01
    0.4180758603E-01    -0.2067851533E+00    -0.2141925979E+01
    0.4212439959E-01     0.7341387596E+00    -0.1180697011E+01
    0.4244136407E-01     0.1675066815E+01    -0.7896750287E+00
    0.4275847975E-01     0.2615999020E+01    -0.3651875541E+00
    0.4307574687E-01     0.3556935381E+01     0.0000000000E+00
    0.4339316572E-01     0.4497875905E+01    -0.9120372081E+00
    0.4371073656E-01     0.5438820599E+01    -0.1361770949E+01
    0.4402845965E-01     0.6379769469E+01    -0.1379165420E+01
    0.4434633527E-01     0.7320722522E+01    -0.2261931115E+01
    0.4466436369E-01     0.8261679765E+01    -0.1885311026E+01
    0.4498254517E-01     0.9202641206E+01    -0.2261931115E+01
    0.4530087999E-01     0.1014360685E+02    -0.2162660077E+01
    0.4561936841E-01     0.1108457671E+02    -0.2136311435E+01
    0.4593801072E-01     0.1202555078E+02    -0.2261931115E+01
    0.4625680718E-01     0.1296652908E+02    -0.2261931115E+01
    0.4657575807E-01     0.1390751160E+02    -0.2261931115E+01
    0.4689486366E-01     0.1484849837E+02    -0.2261931115E+01
    0.4721412424E-01     0.1578948938E+02    -0.2261931115E+01
    0.4753354007E-01     0.1673048465E+02    -0.2261931115E+01
    0.4785311143E-01     0.1767148418E+02    -0.2261931115E+01
    0.4817283860E-01     0.1861248797E+02    -0.2261931115E+01
    0.4849272187E-01     0.1955349603E+02    -0.2261931115E+01
    0.4881276151E-01     0.2049450838E+02    -0.2261931115E+01
    0.4913295780E-01     0.2143552501E+02    -0.2261931115E+01
    0.4945331102E-01     0.2237654594E+02    -0.2261931115E+01
    0.4977382146E-01     0.2331757118E+02    -0.2261931115E+01
    0.5009448939E-01     0.2425860072E+02    -0.2261931115E+01
    0.5041531511E-01     0.2519963458E+02    -0.2261931115E+01
    0.5073629890E-01     0.2614067276E+02    -0.2261931115E+01
    0.5105744104E-01     0.2708171527E+02    -0.2261931115E+01
    0.5137874182E-01     0.2802276212E+02    -0.2261931115E+01
    0.5170020152E-01     0.2896381332E+02    -0.2261931115E+01
    0.5202182044E-01     0.2990486887E+02    -0.2261931115E+01
    0.5234359887E-01     0.3084592878E+02    -0.2261931115E+01
    0.5266553709E-01     0.3178699306E+02    -0.2261931115E+01
    0.3260398768E-01    -0.2748499599E+02    -0.2463429637E+01
    0.3291649264E-01    -0.2654432506E+02    -0.2463429637E+01
    0.3322914112E-01    -0.2560365016E+02    -0.2463429637E+01
    0.3354193336E-01    -0.2466297131E+02    -0.2463429637E+01
    0.3385486962E-01    -0.2372228848E+02    -0.2463429637E+01
    0.3416795013E-01    -0.2278160169E+02    -0.2463429637E+01
    0.3448117514E-01    -0.2184091091E+02    -0.2463429637E+01
    0.3479454489E-01    -0.2090021614E+02    -0.2463429637E+01
    0.3510805965E-01    -0.1995951739E+02    -0.2463429637E+01
    0.3542171965E-01    -0.1901881463E+02    -0.2463429637E+01
    0.3573552513E-01    -0.1807810787E+02    -0.2463429637E+01
    0.3604947637E-01    -0.1713739709E+02    -0.2463429637E+01
    0.3636357359E-01    -0.1619668230E+02    -0.2463429637E+01
    0.3667781706E-01    -0.1525596349E+02    -0.2463429637E+01
    0.3699220702E-01    -0.1431524064E+02    -0.2463429637E+01
    0.3730674372E-01    -0.1337451375E+02    -0.2463429637E+01
    0.3762142743E-01    -0.1243378282E+02    -0.2463429637E+01
    0.3793625839E-01    -0.1149304784E+02    -0.2463429637E+01
    0.3825123686E-01    -0.1055230881E+02    -0.2463429637E+01
    0.3856636309E-01    -0.9611565710E+01    -0.2463429637E+01
    0.3888163735E-01    -0.8670818541E+01    -0.2463429637E+01
    0.3919705987E-01    -0.7730067295E+01    -0.2463429637E+01
    0.3951263093E-01    -0.6789311967E+01    -0.2463429637E+01
    0.3982835079E-01    -0.5848552550E+01    -0.2463429637E+01
    0.4014421969E-01    -0.4907789036E+01    -0.2463429637E+01
    0.4046023790E-01    -0.3967021420E+01    -0.2214665405E+01
    0.4077640569E-01    -0.3026249695E+01    -0.2023224636E+01
    0.4109272330E-01    -0.2085473854E+01    -0.1880335995E+01
    0.4140919101E-01    -0.1144693891E+01    -0.1753455860E+01
    0.4172580907E-01    -0.2039097986E+00    -0.1583303003E+01
    0.4204257775E-01     0.7368784295E+00    -0.2010610391E+01
    0.4235949732E-01     0.1677670800E+01    -0.1216099265E+01
    0.4267656803E-01     0.2618467320E+01    -0.5293833557E+00
    0.4299379015E-01     0.3559267996E+01     0.0000000000E+00
    0.4331116396E-01     0.4500072834E+01    -0.6693508211E+00
    0.4362868971E-01     0.5440881843E+01    -0.1545728877E+01
    0.4394636768E-01     0.6381695027E+01    -0.2048146758E+01
    0.4426419812E-01     0.7322512394E+01    -0.1404257284E+01
    0.4458218133E-01     0.8263333952E+01    -0.1410834138E+01
    0.4490031755E-01     0.9204159706E+01    -0.1733454284E+01
    0.4521860707E-01     0.1014498966E+02    -0.2463429637E+01
    0.4553705015E-01     0.1108582383E+02    -0.2463429637E+01
    0.4585564707E-01     0.1202666222E+02    -0.2463429637E+01
    0.4617439811E-01     0.1296750483E+02    -0.2463429637E+01
    0.4649330352E-01     0.1390835167E+02    -0.2463429637E+01
    0.4681236360E-01     0.1484920275E+02    -0.2463429637E+01
    0.4713157862E-01     0.1579005808E+02    -0.2463429637E+01
    0.4745094884E-01     0.1673091766E+02    -0.2463429637E+01
    0.4777047456E-01     0.1767178149E+02    -0.2463429637E+01
    0.4809015605E-01     0.1861264960E+02    -0.2463429637E+01
    0.4840999358E-01     0.1955352198E+02    -0.2463429637E+01
    0.4872998744E-01     0.2049439863E+02    -0.2463429637E+01
    0.4905013791E-01     0.2143527958E+02    -0.2463429637E+01
    0.4937044526E-01     0.2237616482E+02    -0.2463429637E+01
    0.4969090979E-01     0.2331705436E+02    -0.2463429637E+01
    0.5001153177E-01     0.2425794822E+02    -0.2463429637E+01
    0.5033231149E-01     0.2519884639E+02    -0.2463429637E+01
    0.5065324923E-01     0.2613974888E+02    -0.2463429637E+01
    0.5097434528E-01     0.2708065570E+02    -0.2463429637E+01
    0.5129559992E-01     0.2802156687E+02    -0.2463429637E+01
    0.5161701345E-01     0.2896248237E+02    -0.2463429637E+01
    0.5193858614E-01     0.2990340223E+02    -0.2463429637E+01
    0.5226031830E-01     0.3084432645E+02    -0.2463429637E+01
    0.5258221020E-01     0.3178525504E+02    -0.2463429637E+01
    0.3252345449E-01    -0.2747827008E+02    -0.2405150651E+01
    0.3283591573E-01    -0.2653773481E+02    -0.2405150651E+01
    0.3314852046E-01    -0.2559719558E+02    -0.2405150651E+01
    0.3346126891E-01    -0.2465665239E+02    -0.2405150651E+01
    0.3377416133E-01    -0.2371610524E+02    -0.2405150651E+01
    0.3408719797E-01    -0.2277555411E+02    -0.2405150651E+01
    0.3440037906E-01    -0.2183499900E+02    -0.2405150651E+01
    0.3471370487E-01    -0.2089443990E+02    -0.2405150651E+01
    0.3502717563E-01    -0.1995387681E+02    -0.2405150651E+01
    0.3534079160E-01    -0.1901330972E+02    -0.2405150651E+01
    0.3565455302E-01    -0.1807273863E+02    -0.2405150651E+01
    0.3596846014E-01    -0.1713216352E+02    -0.2405150651E+01
    0.3628251321E-01    -0.1619158440E+02    -0.2405150651E+01
    0.3659671249E-01    -0.1525100125E+02    -0.2405150651E+01
    0.3691105822E-01    -0.1431041407E+02    -0.2405150651E+01
    0.3722555066E-01    -0.1336982286E+02    -0.2405150651E+01
    0.3754019005E-01    -0.1242922760E+02    -0.2405150651E+01
    0.3785497666E-01    -0.1148862829E+02    -0.2405150651E+01
    0.3816991074E-01    -0.1054802492E+02    -0.2405150651E+01
    0.3848499254E-01    -0.9607417490E+01    -0.2405150651E+01
    0.3880022232E-01    -0.8666805990E+01    -0.2405150651E+01
    0.3911560034E-01    -0.7726190414E+01    -0.2405150651E+01
    0.3943112685E-01    -0.6785570756E+01    -0.2405150651E+01
    0.3974680210E-01    -0.5844947008E+01    -0.2405150651E+01
    0.4006262637E-01    -0.4904319165E+01    -0.2405150651E+01
    0.4037859991E-01    -0.3963687219E+01    -0.2405150651E+01
    0.4069472297E-01    -0.3023051164E+01    -0.2405150651E+01
    0.4101099583E-01    -0.2082410994E+01    -0.2095679130E+01
    0.4132741873E-01    -0.1141766701E+01    -0.2156271701E+01
    0.4164399195E-01    -0.2011182793E+00    -0.1103228440E+01
    0.4196071575E-01     0.7395342780E+00    -0.1380737222E+01
    0.4227759039E-01     0.1680190978E+01    -0.1365104169E+01
    0.4259461613E-01     0.2620851826E+01    -0.3128938571E+00
    0.4291179324E-01     0.3561516831E+01     0.0000000000E+00
    0.4322912200E-01     0.4502185998E+01    -0.8015609873E+00
    0.4354660265E-01     0.5442859334E+01    -0.1951484498E+01
    0.4386423548E-01     0.6383536847E+01    -0.1234099686E+01
    0.4418202075E-01     0.7324218543E+01    -0.1397438252E+01
    0.4449995873E-01     0.8264904428E+01    -0.2405150651E+01
    0.4481804969E-01     0.9205594510E+01    -0.1782544255E+01
    0.4513629390E-01     0.1014628880E+02    -0.1933281839E+01
    0.4545469163E-01     0.1108698729E+02    -0.2405150651E+01
    0.4577324316E-01     0.1202769001E+02    -0.2405150651E+01
    0.4609194875E-01     0.1296839694E+02    -0.2405150651E+01
    0.4641080869E-01     0.1390910811E+02    -0.2405150651E+01
    0.4672982325E-01     0.1484982352E+02    -0.2405150651E+01
    0.4704899269E-01     0.1579054317E+02    -0.2405150651E+01
    0.4736831731E-01     0.1673126708E+02    -0.2405150651E+01
    0.4768779737E-01     0.1767199524E+02    -0.2405150651E+01
    0.4800743316E-01     0.1861272767E+02    -0.2405150651E+01
    0.4832722495E-01     0.1955346437E+02    -0.2405150651E+01
    0.4864717302E-01     0.2049420536E+02    -0.2405150651E+01
    0.4896727766E-01     0.2143495063E+02    -0.2405150651E+01
    0.4928753914E-01     0.2237570020E+02    -0.2405150651E+01
    0.4960795774E-01     0.2331645407E+02    -0.2405150651E+01
    0.4992853376E-01     0.2425721224E+02    -0.2405150651E+01
    0.5024926747E-01     0.2519797474E+02    -0.2405150651E+01
    0.5057015915E-01     0.2613874155E+02    -0.2405150651E+01
    0.5089120910E-01     0.2707951270E+02    -0.2405150651E+01
    0.5121241761E-01     0.2802028819E+02    -0.2405150651E+01
    0.5153378494E-01     0.2896106802E+02    -0.2405150651E+01
    0.5185531140E-01     0.2990185221E+02    -0.2405150651E+01
    0.5217699728E-01     0.3084264075E+02    -0.2405150651E+01
    0.5249884286E-01     0.3178343366E+02    -0.2405150651E+01
    0.3244289981E-01    -0.2747157295E+02    -0.2470205300E+01
    0.3275531733E-01    -0.2653117336E+02    -0.2470205300E+01
    0.3306787829E-01    -0.2559076981E+02    -0.2470205300E+01
    0.3338058293E-01    -0.2465036231E+02    -0.2470205300E+01
    0.3369343151E-01    -0.2370995083E+02    -0.2470205300E+01
    0.3400642426E-01    -0.2276953538E+02    -0.2470205300E+01
    0.3431956144E-01    -0.2182911596E+02    -0.2470205300E+01
    0.3463284329E-01    -0.2088869254E+02    -0.2470205300E+01
    0.3494627005E-01    -0.1994826514E+02    -0.2470205300E+01
    0.3525984197E-01    -0.1900783373E+02    -0.2470205300E+01
    0.3557355931E-01    -0.1806739832E+02    -0.2470205300E+01
    0.3588742231E-01    -0.1712695890E+02    -0.2470205300E+01
    0.3620143123E-01    -0.1618651546E+02    -0.2470205300E+01
    0.3651558630E-01    -0.1524606799E+02    -0.2470205300E+01
    0.3682988780E-01    -0.1430561650E+02    -0.2470205300E+01
    0.3714433595E-01    -0.1336516096E+02    -0.2470205300E+01
    0.3745893103E-01    -0.1242470139E+02    -0.2470205300E+01
    0.3777367328E-01    -0.1148423776E+02    -0.2470205300E+01
    0.3808856296E-01    -0.1054377008E+02    -0.2470205300E+01
    0.3840360032E-01    -0.9603298333E+01    -0.2470205300E+01
    0.3871878562E-01    -0.8662822518E+01    -0.2470205300E+01
    0.3903411911E-01    -0.7722342627E+01    -0.2470205300E+01
    0.3934960105E-01    -0.6781858653E+01    -0.2470205300E+01
    0.3966523171E-01    -0.5841370590E+01    -0.2470205300E+01
    0.3998101133E-01    -0.4900878432E+01    -0.2470205300E+01
    0.4029694018E-01    -0.3960382171E+01    -0.2470205300E+01
    0.4061301851E-01    -0.3019881801E+01    -0.2032185366E+01
    0.4092924660E-01    -0.2079377316E+01    -0.1833338683E+01
    0.4124562469E-01    -0.1138868709E+01    -0.2470205300E+01
    0.4156215306E-01    -0.1983559730E+00    -0.1345941271E+01
    0.4187883196E-01     0.7421608986E+00    -0.1293761714E+01
    0.4219566166E-01     0.1682681912E+01    -0.6532304631E+00
    0.4251264243E-01     0.2623207075E+01     0.0000000000E+00
    0.4282977452E-01     0.3563736393E+01    -0.5300498276E+00
    0.4314705821E-01     0.4504269874E+01    -0.1438496552E+01
    0.4346449376E-01     0.5444807524E+01    -0.1640618955E+01
    0.4378208145E-01     0.6385349350E+01    -0.2470205300E+01
    0.4409982153E-01     0.7325895358E+01    -0.2080380999E+01
    0.4441771427E-01     0.8266445557E+01    -0.1736572155E+01
    0.4473575996E-01     0.9206999952E+01    -0.2470205300E+01
    0.4505395885E-01     0.1014755855E+02    -0.1808460213E+01
    0.4537231122E-01     0.1108812136E+02    -0.2470205300E+01
    0.4569081734E-01     0.1202868838E+02    -0.2470205300E+01
    0.4600947749E-01     0.1296925963E+02    -0.2470205300E+01
    0.4632829194E-01     0.1390983512E+02    -0.2470205300E+01
    0.4664726096E-01     0.1485041483E+02    -0.2470205300E+01
    0.4696638483E-01     0.1579099880E+02    -0.2470205300E+01
    0.4728566383E-01     0.1673158701E+02    -0.2470205300E+01
    0.4760509822E-01     0.1767217949E+02    -0.2470205300E+01
    0.4792468830E-01     0.1861277623E+02    -0.2470205300E+01
    0.4824443434E-01     0.1955337725E+02    -0.2470205300E+01
    0.4856433661E-01     0.2049398254E+02    -0.2470205300E+01
    0.4888439541E-01     0.2143459212E+02    -0.2470205300E+01
    0.4920461100E-01     0.2237520600E+02    -0.2470205300E+01
    0.4952498368E-01     0.2331582418E+02    -0.2470205300E+01
    0.4984551372E-01     0.2425644667E+02    -0.2470205300E+01
    0.5016620141E-01     0.2519707347E+02    -0.2470205300E+01
    0.5048704703E-01     0.2613770460E+02    -0.2470205300E+01
    0.5080805087E-01     0.2707834006E+02    -0.2470205300E+01
    0.5112921322E-01     0.2801897985E+02    -0.2470205300E+01
    0.5145053436E-01     0.2895962399E+02    -0.2470205300E+01
    0.5177201458E-01     0.2990027249E+02    -0.2470205300E+01
    0.5209365416E-01     0.3084092534E+02    -0.2470205300E+01
    0.5241545341E-01     0.3178158256E+02    -0.2470205300E+01
    0.3236233931E-01    -0.2746485740E+02    -0.2601167509E+01
    0.3267471309E-01    -0.2652459354E+02    -0.2601167509E+01
    0.3298723027E-01    -0.2558432572E+02    -0.2601167509E+01
    0.3329989109E-01    -0.2464405394E+02    -0.2601167509E+01
    0.3361269581E-01    -0.2370377820E+02    -0.2601167509E+01
    0.3392564467E-01    -0.2276349848E+02    -0.2601167509E+01
    0.3423873791E-01    -0.2182321478E+02    -0.2601167509E+01
    0.3455197579E-01    -0.2088292710E+02    -0.2601167509E+01
    0.3486535853E-01    -0.1994263542E+02    -0.2601167509E+01
    0.3517888641E-01    -0.1900233974E+02    -0.2601167509E+01
    0.3549255965E-01    -0.1806204006E+02    -0.2601167509E+01
    0.3580637852E-01    -0.1712173637E+02    -0.2601167509E+01
    0.3612034326E-01    -0.1618142866E+02    -0.2601167509E+01
    0.3643445413E-01    -0.1524111692E+02    -0.2601167509E+01
    0.3674871137E-01    -0.1430080116E+02    -0.2601167509E+01
    0.3706311523E-01    -0.1336048135E+02    -0.2601167509E+01
    0.3737766598E-01    -0.1242015751E+02    -0.2601167509E+01
    0.3769236385E-01    -0.1147982961E+02    -0.2601167509E+01
    0.3800720912E-01    -0.1053949766E+02    -0.2601167509E+01
    0.3832220202E-01    -0.9599161643E+01    -0.2601167509E+01
    0.3863734283E-01    -0.8658821559E+01    -0.2601167509E+01
    0.3895263178E-01    -0.7718477398E+01    -0.2601167509E+01
    0.3926806915E-01    -0.6778129155E+01    -0.2601167509E+01
    0.3958365519E-01    -0.5837776824E+01    -0.2601167509E+01
    0.3989939015E-01    -0.4897420396E+01    -0.2601167509E+01
    0.4021527430E-01    -0.3957059867E+01    -0.2601167509E+01
    0.4053130789E-01    -0.3016695229E+01    -0.2260262088E+01
    0.4084749120E-01    -0.2076326475E+01    -0.1477384975E+01
    0.4116382447E-01    -0.1135953600E+01    -0.1495055614E+01
    0.4148030797E-01    -0.1955765955E+00    -0.2422683940E+01
    0.4179694196E-01     0.7448045440E+00    -0.2384873758E+01
    0.4211372672E-01     0.1685189826E+01    -0.1481664998E+01
    0.4243066249E-01     0.2625579256E+01    -0.1038743005E+01
    0.4274774955E-01     0.3565972842E+01     0.0000000000E+00
    0.4306498816E-01     0.4506370590E+01    -0.2022358203E+00
    0.4338237860E-01     0.5446772507E+01    -0.1216264923E+01
    0.4369992112E-01     0.6387178600E+01    -0.2601167509E+01
    0.4401761600E-01     0.7327588875E+01    -0.2601167509E+01
    0.4433546350E-01     0.8268003340E+01    -0.1825027566E+01
    0.4465346389E-01     0.9208422002E+01    -0.1415784548E+01
    0.4497161746E-01     0.1014884487E+02    -0.1574317841E+01
    0.4528992445E-01     0.1108927194E+02    -0.2245104913E+01
    0.4560838516E-01     0.1202970323E+02    -0.2544116886E+01
    0.4592699985E-01     0.1297013875E+02    -0.2601167509E+01
    0.4624576879E-01     0.1391057850E+02    -0.2601167509E+01
    0.4656469227E-01     0.1485102248E+02    -0.2601167509E+01
    0.4688377055E-01     0.1579147071E+02    -0.2601167509E+01
    0.4720300391E-01     0.1673192319E+02    -0.2601167509E+01
    0.4752239263E-01     0.1767237993E+02    -0.2601167509E+01
    0.4784193698E-01     0.1861284094E+02    -0.2601167509E+01
    0.4816163725E-01     0.1955330622E+02    -0.2601167509E+01
    0.4848149372E-01     0.2049377578E+02    -0.2601167509E+01
    0.4880150666E-01     0.2143424962E+02    -0.2601167509E+01
    0.4912167636E-01     0.2237472776E+02    -0.2601167509E+01
    0.4944200309E-01     0.2331521021E+02    -0.2601167509E+01
    0.4976248714E-01     0.2425569696E+02    -0.2601167509E+01
    0.5008312880E-01     0.2519618803E+02    -0.2601167509E+01
    0.5040392835E-01     0.2613668342E+02    -0.2601167509E+01
    0.5072488607E-01     0.2707718314E+02    -0.2601167509E+01
    0.5104600225E-01     0.2801768720E+02    -0.2601167509E+01
    0.5136727717E-01     0.2895819560E+02    -0.2601167509E+01
    0.5168871113E-01     0.2989870836E+02    -0.2601167509E+01
    0.5201030441E-01     0.3083922547E+02    -0.2601167509E+01
    0.5233205731E-01     0.3177974696E+02    -0.2601167509E+01
    0.3228174719E-01    -0.2745820105E+02    -0.2712527538E+01
    0.3259407720E-01    -0.2651807297E+02    -0.2712527538E+01
    0.3290655058E-01    -0.2557794093E+02    -0.2712527538E+01
    0.3321916756E-01    -0.2463780494E+02    -0.2712527538E+01
    0.3353192840E-01    -0.2369766497E+02    -0.2712527538E+01
    0.3384483334E-01    -0.2275752103E+02    -0.2712527538E+01
    0.3415788262E-01    -0.2181737311E+02    -0.2712527538E+01
    0.3447107649E-01    -0.2087722121E+02    -0.2712527538E+01
    0.3478441520E-01    -0.1993706531E+02    -0.2712527538E+01
    0.3509789899E-01    -0.1899690541E+02    -0.2712527538E+01
    0.3541152812E-01    -0.1805674151E+02    -0.2712527538E+01
    0.3572530283E-01    -0.1711657360E+02    -0.2712527538E+01
    0.3603922337E-01    -0.1617640167E+02    -0.2712527538E+01
    0.3635328999E-01    -0.1523622571E+02    -0.2712527538E+01
    0.3666750295E-01    -0.1429604573E+02    -0.2712527538E+01
    0.3698186250E-01    -0.1335586171E+02    -0.2712527538E+01
    0.3729636889E-01    -0.1241567364E+02    -0.2712527538E+01
    0.3761102236E-01    -0.1147548153E+02    -0.2712527538E+01
    0.3792582319E-01    -0.1053528536E+02    -0.2712527538E+01
    0.3824077161E-01    -0.9595085123E+01    -0.2712527538E+01
    0.3855586789E-01    -0.8654880820E+01    -0.2712527538E+01
    0.3887111229E-01    -0.7714672441E+01    -0.2712527538E+01
    0.3918650505E-01    -0.6774459980E+01    -0.2712527538E+01
    0.3950204644E-01    -0.5834243430E+01    -0.2712527538E+01
    0.3981773672E-01    -0.4894022785E+01    -0.2712527538E+01
    0.4013357615E-01    -0.3953798038E+01    -0.2712527538E+01
    0.4044956497E-01    -0.3013569182E+01    -0.2124959418E+01
    0.4076570347E-01    -0.2073336211E+01    -0.2712527538E+01
    0.4108199189E-01    -0.1133099118E+01    -0.2174909004E+01
    0.4139843049E-01    -0.1928578967E+00    -0.2712527538E+01
    0.4171501956E-01     0.7473874598E+00    -0.2415566056E+01
    0.4203175933E-01     0.1687636958E+01    -0.1854710890E+01
    0.4234865009E-01     0.2627890605E+01    -0.8088554823E+00
    0.4266569209E-01     0.3568148408E+01     0.0000000000E+00
    0.4298288560E-01     0.4508410372E+01    -0.2364348048E+00
    0.4330023089E-01     0.5448676505E+01    -0.1101259492E+01
    0.4361772822E-01     0.6388946814E+01    -0.2575962615E+01
    0.4393537787E-01     0.7329221306E+01    -0.2712527538E+01
    0.4425318010E-01     0.8269499987E+01    -0.2318447908E+01
    0.4457113518E-01     0.9209782864E+01    -0.2712527538E+01
    0.4488924338E-01     0.1015006994E+02    -0.2042311092E+01
    0.4520750498E-01     0.1109036123E+02    -0.2219814374E+01
    0.4552592024E-01     0.1203065674E+02    -0.2712527538E+01
    0.4584448945E-01     0.1297095647E+02    -0.2712527538E+01
    0.4616321286E-01     0.1391126043E+02    -0.2712527538E+01
    0.4648209076E-01     0.1485156863E+02    -0.2712527538E+01
    0.4680112342E-01     0.1579188108E+02    -0.2712527538E+01
    0.4712031112E-01     0.1673219777E+02    -0.2712527538E+01
    0.4743965413E-01     0.1767251873E+02    -0.2712527538E+01
    0.4775915274E-01     0.1861284395E+02    -0.2712527538E+01
    0.4807880722E-01     0.1955317344E+02    -0.2712527538E+01
    0.4839861785E-01     0.2049350721E+02    -0.2712527538E+01
    0.4871858491E-01     0.2143384527E+02    -0.2712527538E+01
    0.4903870868E-01     0.2237418763E+02    -0.2712527538E+01
    0.4935898944E-01     0.2331453428E+02    -0.2712527538E+01
    0.4967942748E-01     0.2425488525E+02    -0.2712527538E+01
    0.5000002308E-01     0.2519524053E+02    -0.2712527538E+01
    0.5032077652E-01     0.2613560013E+02    -0.2712527538E+01
    0.5064168809E-01     0.2707596407E+02    -0.2712527538E+01
    0.5096275807E-01     0.2801633234E+02    -0.2712527538E+01
    0.5128398676E-01     0.2895670495E+02    -0.2712527538E+01
    0.5160537443E-01     0.2989708192E+02    -0.2712527538E+01
    0.5192692138E-01     0.3083746325E+02    -0.2712527538E+01
    0.5224862790E-01     0.3177784894E+02    -0.2712527538E+01
    0.3220111871E-01    -0.2745161819E+02    -0.2520986566E+01
    0.3251340493E-01    -0.2651162593E+02    -0.2520986566E+01
    0.3282583447E-01    -0.2557162973E+02    -0.2520986566E+01
    0.3313840758E-01    -0.2463162956E+02    -0.2520986566E+01
    0.3345112451E-01    -0.2369162542E+02    -0.2520986566E+01
    0.3376398549E-01    -0.2275161732E+02    -0.2520986566E+01
    0.3407699078E-01    -0.2181160523E+02    -0.2520986566E+01
    0.3439014063E-01    -0.2087158915E+02    -0.2520986566E+01
    0.3470343527E-01    -0.1993156909E+02    -0.2520986566E+01
    0.3501687495E-01    -0.1899154502E+02    -0.2520986566E+01
    0.3533045993E-01    -0.1805151695E+02    -0.2520986566E+01
    0.3564419045E-01    -0.1711148487E+02    -0.2520986566E+01
    0.3595806677E-01    -0.1617144877E+02    -0.2520986566E+01
    0.3627208913E-01    -0.1523140865E+02    -0.2520986566E+01
    0.3658625778E-01    -0.1429136449E+02    -0.2520986566E+01
    0.3690057298E-01    -0.1335131630E+02    -0.2520986566E+01
    0.3721503498E-01    -0.1241126407E+02    -0.2520986566E+01
    0.3752964403E-01    -0.1147120779E+02    -0.2520986566E+01
    0.3784440038E-01    -0.1053114745E+02    -0.2520986566E+01
    0.3815930430E-01    -0.9591083047E+01    -0.2520986566E+01
    0.3847435603E-01    -0.8651014577E+01    -0.2520986566E+01
    0.3878955583E-01    -0.7710942030E+01    -0.2520986566E+01
    0.3910490396E-01    -0.6770865402E+01    -0.2520986566E+01
    0.3942040068E-01    -0.5830784685E+01    -0.2336015185E+01
    0.3973604625E-01    -0.4890699873E+01    -0.2169353702E+01
    0.4005184091E-01    -0.3950610959E+01    -0.2133943050E+01