VARIABLES = "bangle (rad)", "impact (km)", "ln|U|"
ZONE I=   64 J=  964 F=POINT
    0.3393882880E-01    -0.2396734537E+02    -0.3221140801E+01
    0.3421523056E-01    -0.2313674125E+02    -0.3221140801E+01
    0.3449174490E-01    -0.2230613403E+02    -0.3221140801E+01
    0.3476837200E-01    -0.2147552371E+02    -0.3221140801E+01
    0.3504511202E-01    -0.2064491027E+02    -0.3221140801E+01
    0.3532196515E-01    -0.1981429373E+02    -0.3221140801E+01
    0.3559893153E-01    -0.1898367406E+02    -0.3221140801E+01
    0.3587601136E-01    -0.1815305128E+02    -0.3221140801E+01
    0.3615320480E-01    -0.1732242536E+02    -0.3221140801E+01
    0.3643051202E-01    -0.1649179632E+02    -0.3221140801E+01
    0.3670793319E-01    -0.1566116415E+02    -0.3221140801E+01
    0.3698546850E-01    -0.1483052883E+02    -0.3221140801E+01
    0.3726311810E-01    -0.1399989037E+02    -0.3221140801E+01
    0.3754088218E-01    -0.1316924877E+02    -0.3221140801E+01
    0.3781876092E-01    -0.1233860401E+02    -0.3221140801E+01
    0.3809675447E-01    -0.1150795609E+02    -0.3221140801E+01
    0.3837486303E-01    -0.1067730501E+02    -0.3221140801E+01
    0.3865308676E-01    -0.9846650771E+01    -0.3221140801E+01
    0.3893142585E-01    -0.9015993358E+01    -0.2557670713E+01
    0.3920988046E-01    -0.8185332770E+01    -0.2182273947E+01
    0.3948845078E-01    -0.7354669004E+01    -0.1843046092E+01
    0.3976713698E-01    -0.6524002053E+01    -0.1619862455E+01
    0.4004593924E-01    -0.5693331915E+01    -0.2359816958E+01
    0.4032485774E-01    -0.4862658584E+01    -0.2654148247E+01
    0.4060389265E-01    -0.4031982056E+01    -0.2152400252E+01
    0.4088304417E-01    -0.3201302326E+01    -0.1601229033E+01
    0.4116231246E-01    -0.2370619389E+01    -0.1507674125E+01
    0.4144169771E-01    -0.1539933242E+01    -0.1393973117E+01
    0.4172120009E-01    -0.7092438795E+00    -0.2006826322E+01
    0.4200081979E-01     0.1214487032E+00    -0.1445960291E+01
    0.4228055699E-01     0.9521445106E+00    -0.4308580539E+00
    0.4256041188E-01     0.1782843547E+01     0.0000000000E+00
    0.4284038462E-01     0.2613545818E+01    -0.5955862440E-01
    0.4312047542E-01     0.3444251327E+01    -0.1338243729E+01
    0.4340068444E-01     0.4274960079E+01    -0.7614665269E+00
    0.4368101188E-01     0.5105672079E+01    -0.3238727614E+00
    0.4396145791E-01     0.5936387332E+01    -0.1348363452E+00
    0.4424202273E-01     0.6767105842E+01    -0.1039551234E+01
    0.4452270651E-01     0.7597827614E+01    -0.1280484018E+01
    0.4480350945E-01     0.8428552652E+01    -0.6300500387E+00
    0.4508443173E-01     0.9259280962E+01    -0.6189364307E+00
    0.4536547353E-01     0.1009001255E+02    -0.1314657012E+01
    0.4564663505E-01     0.1092074742E+02    -0.1982285708E+01
    0.4592791647E-01     0.1175148557E+02    -0.1599198995E+01
    0.4620931798E-01     0.1258222701E+02    -0.1930192461E+01
    0.4649083976E-01     0.1341297175E+02    -0.2286191172E+01
    0.4677248201E-01     0.1424371979E+02    -0.2983394531E+01
    0.4705424492E-01     0.1507447113E+02    -0.3127932274E+01
    0.4733612867E-01     0.1590522578E+02    -0.2639298524E+01
    0.4761813346E-01     0.1673598375E+02    -0.2722595147E+01
    0.4790025948E-01     0.1756674503E+02    -0.3072719757E+01
    0.4818250691E-01     0.1839750964E+02    -0.3221140801E+01
    0.4846487596E-01     0.1922827758E+02    -0.3221140801E+01
    0.4874736681E-01     0.2005904886E+02    -0.3221140801E+01
    0.4902997965E-01     0.2088982347E+02    -0.3221140801E+01
    0.4931271469E-01     0.2172060142E+02    -0.3221140801E+01
    0.4959557210E-01     0.2255138273E+02    -0.3221140801E+01
    0.4987855210E-01     0.2338216739E+02    -0.3221140801E+01
    0.5016165487E-01     0.2421295540E+02    -0.3221140801E+01
    0.5044488060E-01     0.2504374678E+02    -0.3221140801E+01
    0.5072822950E-01     0.2587454153E+02    -0.3221140801E+01
    0.5101170176E-01     0.2670533965E+02    -0.3221140801E+01
    0.5129529758E-01     0.2753614115E+02    -0.3221140801E+01
    0.5157901715E-01     0.2836694603E+02    -0.3221140801E+01
    0.3385818738E-01    -0.2396103190E+02    -0.3434675940E+01
    0.3413455038E-01    -0.2313054770E+02    -0.3434675940E+01
    0.3441102593E-01    -0.2230006041E+02    -0.3434675940E+01
    0.3468761420E-01    -0.2146957002E+02    -0.3434675940E+01
    0.3496431538E-01    -0.2063907651E+02    -0.3434675940E+01
    0.3524112961E-01    -0.1980857990E+02    -0.3434675940E+01
    0.3551805709E-01    -0.1897808016E+02    -0.3434675940E+01
    0.3579509797E-01    -0.1814757731E+02    -0.3434675940E+01
    0.3607225243E-01    -0.1731707132E+02    -0.3434675940E+01
    0.3634952064E-01    -0.1648656221E+02    -0.3434675940E+01
    0.3662690278E-01    -0.1565604997E+02    -0.3434675940E+01
    0.3690439901E-01    -0.1482553458E+02    -0.3434675940E+01
    0.3718200951E-01    -0.1399501605E+02    -0.3434675940E+01
    0.3745973446E-01    -0.1316449438E+02    -0.3434675940E+01
    0.3773757403E-01    -0.1233396955E+02    -0.3434675940E+01
    0.3801552839E-01    -0.1150344156E+02    -0.3434675940E+01
    0.3829359772E-01    -0.1067291042E+02    -0.3434675940E+01
    0.3857178219E-01    -0.9842376106E+01    -0.3434675940E+01
    0.3885008199E-01    -0.9011838624E+01    -0.3434675940E+01
    0.3912849728E-01    -0.8181297968E+01    -0.3316989387E+01
    0.3940702824E-01    -0.7350754132E+01    -0.3434675940E+01
    0.3968567505E-01    -0.6520207114E+01    -0.2838347157E+01
    0.3996443790E-01    -0.5689656907E+01    -0.2069825895E+01
    0.4024331695E-01    -0.4859103507E+01    -0.2194882934E+01
    0.4052231238E-01    -0.4028546911E+01    -0.2601424314E+01
    0.4080142438E-01    -0.3197987113E+01    -0.1758954158E+01
    0.4108065312E-01    -0.2367424108E+01    -0.2280643895E+01
    0.4135999879E-01    -0.1536857893E+01    -0.1865423152E+01
    0.4163946156E-01    -0.7062884628E+00    -0.1909078531E+01
    0.4191904162E-01     0.1242841875E+00    -0.1525446472E+01
    0.4219873915E-01     0.9548600625E+00    -0.1905053630E+01
    0.4247855432E-01     0.1785439167E+01    -0.8112702020E+00
    0.4275848733E-01     0.2616021504E+01    -0.8203759717E+00
    0.4303853834E-01     0.3446607081E+01    -0.1110223025E-15
    0.4331870756E-01     0.4277195900E+01    -0.3903142681E+00
    0.4359899516E-01     0.5107787967E+01    -0.7545334015E+00
    0.4387940132E-01     0.5938383287E+01    -0.9504356233E+00
    0.4415992623E-01     0.6768981864E+01    -0.8337668386E+00
    0.4444057007E-01     0.7599583702E+01    -0.9325810429E+00
    0.4472133304E-01     0.8430188807E+01    -0.1514246119E+01
    0.4500221531E-01     0.9260797183E+01    -0.1207099706E+01
    0.4528321707E-01     0.1009140884E+02    -0.1140500376E+01
    0.4556433852E-01     0.1092202377E+02    -0.1395235149E+01
    0.4584557983E-01     0.1175264199E+02    -0.2341284312E+01
    0.4612694120E-01     0.1258326350E+02    -0.3434675940E+01
    0.4640842281E-01     0.1341388830E+02    -0.2904864414E+01
    0.4669002485E-01     0.1424451640E+02    -0.3434675940E+01
    0.4697174751E-01     0.1507514781E+02    -0.3091383899E+01
    0.4725359099E-01     0.1590578253E+02    -0.3434675940E+01
    0.4753555547E-01     0.1673642056E+02    -0.3434675940E+01
    0.4781764114E-01     0.1756706191E+02    -0.3434675940E+01
    0.4809984820E-01     0.1839770659E+02    -0.3220322034E+01
    0.4838217683E-01     0.1922835459E+02    -0.3434675940E+01
    0.4866462723E-01     0.2005900593E+02    -0.3434675940E+01
    0.4894719959E-01     0.2088966060E+02    -0.3434675940E+01
    0.4922989411E-01     0.2172031862E+02    -0.3434675940E+01
    0.4951271098E-01     0.2255097999E+02    -0.3434675940E+01
    0.4979565039E-01     0.2338164471E+02    -0.3434675940E+01
    0.5007871253E-01     0.2421231279E+02    -0.3434675940E+01
    0.5036189761E-01     0.2504298424E+02    -0.3434675940E+01
    0.5064520582E-01     0.2587365905E+02    -0.3434675940E+01
    0.5092863736E-01     0.2670433723E+02    -0.3434675940E+01
    0.5121219241E-01     0.2753501880E+02    -0.3434675940E+01
    0.5149587119E-01     0.2836570374E+02    -0.3434675940E+01
    0.3377752196E-01    -0.2395475471E+02    -0.3539476761E+01
    0.3405384620E-01    -0.2312439043E+02    -0.3539476761E+01
    0.3433028296E-01    -0.2229402305E+02    -0.3539476761E+01
    0.3460683241E-01    -0.2146365257E+02    -0.3539476761E+01
    0.3488349473E-01    -0.2063327898E+02    -0.3539476761E+01
    0.3516027008E-01    -0.1980290227E+02    -0.3539476761E+01
    0.3543715864E-01    -0.1897252245E+02    -0.3539476761E+01
    0.3571416057E-01    -0.1814213951E+02    -0.3539476761E+01
    0.3599127606E-01    -0.1731175344E+02    -0.3539476761E+01
    0.3626850526E-01    -0.1648136424E+02    -0.3539476761E+01
    0.3654584836E-01    -0.1565097191E+02    -0.3539476761E+01
    0.3682330553E-01    -0.1482057644E+02    -0.3539476761E+01
    0.3710087693E-01    -0.1399017783E+02    -0.3539476761E+01
    0.3737856275E-01    -0.1315977606E+02    -0.3539476761E+01
    0.3765636315E-01    -0.1232937115E+02    -0.3539476761E+01
    0.3793427831E-01    -0.1149896308E+02    -0.3516585174E+01
    0.3821230842E-01    -0.1066855185E+02    -0.3539476761E+01
    0.3849045363E-01    -0.9838137449E+01    -0.3539476761E+01
    0.3876871414E-01    -0.9007719881E+01    -0.3001319004E+01
    0.3904709010E-01    -0.8177299139E+01    -0.2864704754E+01
    0.3932558171E-01    -0.7346875219E+01    -0.3125009022E+01
    0.3960418914E-01    -0.6516448115E+01    -0.3428992352E+01
    0.3988291257E-01    -0.5686017823E+01    -0.2702667728E+01
    0.4016175217E-01    -0.4855584339E+01    -0.2566261615E+01
    0.4044070812E-01    -0.4025147657E+01    -0.3315075545E+01
    0.4071978061E-01    -0.3194707774E+01    -0.1949121484E+01
    0.4099896980E-01    -0.2364264685E+01    -0.1380148490E+01
    0.4127827589E-01    -0.1533818386E+01    -0.1322678232E+01
    0.4155769905E-01    -0.7033688710E+00    -0.1417790715E+01
    0.4183723947E-01     0.1270838637E+00    -0.1158795770E+01
    0.4211689732E-01     0.9575398228E+00    -0.1641342590E+01
    0.4239667278E-01     0.1787999011E+01    -0.9517516864E+00
    0.4267656604E-01     0.2618461433E+01    -0.6215994954E+00
    0.4295657729E-01     0.3448927093E+01     0.0000000000E+00
    0.4323670670E-01     0.4279395996E+01    -0.4563965702E+00
    0.4351695445E-01     0.5109868147E+01    -0.2457962741E+01
    0.4379732074E-01     0.5940343550E+01    -0.1556251544E+01
    0.4407780574E-01     0.6770822210E+01    -0.9645331990E+00
    0.4435840965E-01     0.7601304131E+01    -0.1100967669E+01
    0.4463913264E-01     0.8431789320E+01    -0.1824758721E+01
    0.4491997491E-01     0.9262277779E+01    -0.2615734064E+01
    0.4520093663E-01     0.1009276951E+02    -0.2685421205E+01
    0.4548201800E-01     0.1092326453E+02    -0.2680937142E+01
    0.4576321921E-01     0.1175376283E+02    -0.2785826413E+01
    0.4604454043E-01     0.1258426442E+02    -0.2466111739E+01
    0.4632598187E-01     0.1341476931E+02    -0.2186553133E+01
    0.4660754370E-01     0.1424527749E+02    -0.2668309752E+01
    0.4688922613E-01     0.1507578898E+02    -0.3402907006E+01
    0.4717102933E-01     0.1590630378E+02    -0.3069178738E+01
    0.4745295350E-01     0.1673682190E+02    -0.3141884193E+01
    0.4773499882E-01     0.1756734333E+02    -0.3417194028E+01
    0.4801716550E-01     0.1839786809E+02    -0.3498244071E+01
    0.4829945372E-01     0.1922839617E+02    -0.3539476761E+01
    0.4858186368E-01     0.2005892759E+02    -0.3539476761E+01
    0.4886439556E-01     0.2088946235E+02    -0.3539476761E+01
    0.4914704956E-01     0.2172000045E+02    -0.3539476761E+01
    0.4942982588E-01     0.2255054190E+02    -0.3539476761E+01
    0.4971272470E-01     0.2338108670E+02    -0.3539476761E+01
    0.4999574623E-01     0.2421163486E+02    -0.3539476761E+01
    0.5027889065E-01     0.2504218638E+02    -0.3539476761E+01
    0.5056215817E-01     0.2587274128E+02    -0.3539476761E+01
    0.5084554898E-01     0.2670329954E+02    -0.3539476761E+01
    0.5112906328E-01     0.2753386118E+02    -0.3539476761E+01
    0.5141270126E-01     0.2836442621E+02    -0.3539476761E+01
    0.3369683244E-01    -0.2394851412E+02    -0.3237004320E+01
    0.3397311794E-01    -0.2311826964E+02    -0.3237004320E+01
    0.3424951594E-01    -0.2228802207E+02    -0.3237004320E+01
    0.3452602660E-01    -0.2145777139E+02    -0.3237004320E+01
    0.3480265010E-01    -0.2062751761E+02    -0.3237004320E+01
    0.3507938660E-01    -0.1979726071E+02    -0.3237004320E+01
    0.3535623627E-01    -0.1896700070E+02    -0.3237004320E+01
    0.3563319929E-01    -0.1813673756E+02    -0.3237004320E+01
    0.3591027583E-01    -0.1730647130E+02    -0.3237004320E+01
    0.3618746606E-01    -0.1647620191E+02    -0.3237004320E+01
    0.3646477015E-01    -0.1564592939E+02    -0.3237004320E+01
    0.3674218827E-01    -0.1481565372E+02    -0.3237004320E+01
    0.3701972060E-01    -0.1398537492E+02    -0.3237004320E+01
    0.3729736732E-01    -0.1315509296E+02    -0.3235263573E+01
    0.3757512859E-01    -0.1232480786E+02    -0.3080340746E+01
    0.3785300459E-01    -0.1149451959E+02    -0.3227805763E+01
    0.3813099550E-01    -0.1066422817E+02    -0.3184828056E+01
    0.3840910148E-01    -0.9833933579E+01    -0.3237004320E+01
    0.3868732273E-01    -0.9003635820E+01    -0.3237004320E+01
    0.3896565941E-01    -0.8173334886E+01    -0.2725781479E+01
    0.3924411169E-01    -0.7343030774E+01    -0.2672441743E+01
    0.3952267977E-01    -0.6512723479E+01    -0.2411221137E+01
    0.3980136380E-01    -0.5682412995E+01    -0.2509461960E+01
    0.4008016399E-01    -0.4852099320E+01    -0.2432235185E+01
    0.4035908049E-01    -0.4021782447E+01    -0.1678248763E+01
    0.4063811349E-01    -0.3191462373E+01    -0.1099407530E+01
    0.4091726317E-01    -0.2361139093E+01    -0.1798289201E+01
    0.4119652971E-01    -0.1530812603E+01    -0.1503738969E+01
    0.4147591329E-01    -0.7004828971E+00    -0.1502641792E+01
    0.4175541410E-01     0.1298500282E+00    -0.2085844560E+01
    0.4203503230E-01     0.9601861778E+00    -0.5364202460E+00
    0.4231476809E-01     0.1790525556E+01     0.0000000000E+00
    0.4259462164E-01     0.2620868168E+01    -0.1911563212E+00
    0.4287459314E-01     0.3451214019E+01    -0.2477036892E+00
    0.4315468277E-01     0.4281563112E+01    -0.3909972345E+00
    0.4343489072E-01     0.5111915453E+01    -0.1670981477E+01
    0.4371521716E-01     0.5942271045E+01    -0.1145483215E+01
    0.4399566229E-01     0.6772629895E+01    -0.1351607360E+01
    0.4427622629E-01     0.7602992006E+01    -0.2132588445E+01
    0.4455690934E-01     0.8433357384E+01    -0.1582436032E+01
    0.4483771163E-01     0.9263726032E+01    -0.2253889297E+01
    0.4511863335E-01     0.1009409796E+02    -0.2596442176E+01
    0.4539967468E-01     0.1092447316E+02    -0.3056196075E+01
    0.4568083581E-01     0.1175485165E+02    -0.2706505361E+01
    0.4596211692E-01     0.1258523343E+02    -0.2018994695E+01
    0.4624351822E-01     0.1341561851E+02    -0.2496600379E+01
    0.4652503988E-01     0.1424600688E+02    -0.3237004320E+01
    0.4680668209E-01     0.1507639856E+02    -0.3036506099E+01
    0.4708844505E-01     0.1590679355E+02    -0.3237004320E+01
    0.4737032894E-01     0.1673719185E+02    -0.3237004320E+01
    0.4765233395E-01     0.1756759347E+02    -0.3237004320E+01
    0.4793446028E-01     0.1839799841E+02    -0.3237004320E+01
    0.4821670812E-01     0.1922840669E+02    -0.3237004320E+01
    0.4849907766E-01     0.2005881829E+02    -0.3237004320E+01
    0.4878156909E-01     0.2088923324E+02    -0.3237004320E+01
    0.4906418261E-01     0.2171965153E+02    -0.3237004320E+01
    0.4934691841E-01     0.2255007316E+02    -0.3237004320E+01
    0.4962977668E-01     0.2338049815E+02    -0.3237004320E+01
    0.4991275762E-01     0.2421092650E+02    -0.3237004320E+01
    0.5019586142E-01     0.2504135821E+02    -0.3237004320E+01
    0.5047908828E-01     0.2587179329E+02    -0.3237004320E+01
    0.5076243840E-01     0.2670223174E+02    -0.3237004320E+01
    0.5104591197E-01     0.2753267357E+02    -0.3237004320E+01
    0.5132950919E-01     0.2836311878E+02    -0.3237004320E+01
    0.3361611627E-01    -0.2394231774E+02    -0.3218229515E+01
    0.3389236306E-01    -0.2311219298E+02    -0.3218229515E+01
    0.3416872232E-01    -0.2228206513E+02    -0.3218229515E+01
    0.3444519422E-01    -0.2145193417E+02    -0.3218229515E+01
    0.3472177891E-01    -0.2062180010E+02    -0.3218229515E+01
    0.3499847658E-01    -0.1979166292E+02    -0.3218229515E+01
    0.3527528740E-01    -0.1896152263E+02    -0.3218229515E+01
    0.3555221153E-01    -0.1813137921E+02    -0.3218229515E+01
    0.3582924914E-01    -0.1730123267E+02    -0.3218229515E+01
    0.3610640042E-01    -0.1647108299E+02    -0.3218229515E+01
    0.3638366552E-01    -0.1564093019E+02    -0.3218229515E+01
    0.3666104463E-01    -0.1481077424E+02    -0.3218229515E+01
    0.3693853792E-01    -0.1398061515E+02    -0.3218229515E+01
    0.3721614555E-01    -0.1315045292E+02    -0.3218229515E+01
    0.3749386772E-01    -0.1232028753E+02    -0.3121270010E+01
    0.3777170458E-01    -0.1149011899E+02    -0.2954944778E+01
    0.3804965631E-01    -0.1065994728E+02    -0.3218229515E+01
    0.3832772309E-01    -0.9829772411E+01    -0.3218229515E+01
    0.3860590510E-01    -0.8999594371E+01    -0.3041509688E+01
    0.3888420251E-01    -0.8169413157E+01    -0.2078869110E+01
    0.3916261550E-01    -0.7339228764E+01    -0.2276674173E+01
    0.3944114424E-01    -0.6509041188E+01    -0.2318085485E+01
    0.3971978892E-01    -0.5678850425E+01    -0.2730102925E+01
    0.3999854970E-01    -0.4848656469E+01    -0.2613498667E+01
    0.4027742678E-01    -0.4018459316E+01    -0.1666982715E+01
    0.4055642032E-01    -0.3188258962E+01    -0.1316876941E+01
    0.4083553051E-01    -0.2358055402E+01    -0.1342115423E+01
    0.4111475753E-01    -0.1527848632E+01    -0.1406839372E+01
    0.4139410155E-01    -0.6976386470E+00    -0.2281612100E+01
    0.4167356277E-01     0.1325745578E+00    -0.7436882459E+00
    0.4195314135E-01     0.9627909869E+00    -0.3347291735E+00
    0.4223283748E-01     0.1793010645E+01    -0.1110223025E-15
    0.4251265135E-01     0.2623233536E+01    -0.4965985653E-01
    0.4279258313E-01     0.3453459665E+01    -0.7109265886E+00
    0.4307263301E-01     0.4283689037E+01    -0.1630068185E+01
    0.4335280117E-01     0.5113921657E+01    -0.1484032283E+01
    0.4363308780E-01     0.5944157529E+01    -0.2893018948E+01
    0.4391349308E-01     0.6774396657E+01    -0.1543713380E+01
    0.4419401719E-01     0.7604639047E+01    -0.1065755060E+01
    0.4447466033E-01     0.8434884702E+01    -0.1404212075E+01
    0.4475542267E-01     0.9265133629E+01    -0.2503727101E+01
    0.4503630440E-01     0.1009538583E+02    -0.2547767777E+01
    0.4531730571E-01     0.1092564131E+02    -0.3218229515E+01
    0.4559842679E-01     0.1175590008E+02    -0.2712538538E+01
    0.4587966782E-01     0.1258616214E+02    -0.2535282544E+01
    0.4616102900E-01     0.1341642749E+02    -0.2740892699E+01
    0.4644251050E-01     0.1424669614E+02    -0.3056422809E+01
    0.4672411253E-01     0.1507696810E+02    -0.3218229515E+01
    0.4700583527E-01     0.1590724337E+02    -0.3218229515E+01
    0.4728767890E-01     0.1673752194E+02    -0.3218229515E+01
    0.4756964363E-01     0.1756780384E+02    -0.3218229515E+01
    0.4785172964E-01     0.1839808906E+02    -0.3218229515E+01
    0.4813393712E-01     0.1922837761E+02    -0.3218229515E+01
    0.4841626627E-01     0.2005866950E+02    -0.3218229515E+01
    0.4869871728E-01     0.2088896472E+02    -0.3218229515E+01
    0.4898129034E-01     0.2171926328E+02    -0.3218229515E+01
    0.4926398564E-01     0.2254956519E+02    -0.3218229515E+01
    0.4954680338E-01     0.2337987046E+02    -0.3218229515E+01
    0.4982974375E-01     0.2421017908E+02    -0.3218229515E+01
    0.5011280696E-01     0.2504049107E+02    -0.3218229515E+01
    0.5039599319E-01     0.2587080642E+02    -0.3218229515E+01
    0.5067930264E-01     0.2670112515E+02    -0.3218229515E+01
    0.5096273550E-01     0.2753144726E+02    -0.3218229515E+01
    0.5124629198E-01     0.2836177274E+02    -0.3218229515E+01
    0.3353537589E-01    -0.2393615822E+02    -0.3441308220E+01
    0.3381158396E-01    -0.2310615322E+02    -0.3441308220E+01
    0.3408790446E-01    -0.2227614513E+02    -0.3441308220E+01
    0.3436433757E-01    -0.2144613393E+02    -0.3441308220E+01
    0.3464088344E-01    -0.2061611963E+02    -0.3441308220E+01
    0.3491754227E-01    -0.1978610221E+02    -0.3441308220E+01
    0.3519431420E-01    -0.1895608167E+02    -0.3441308220E+01
    0.3547119942E-01    -0.1812605802E+02    -0.3441308220E+01
    0.3574819809E-01    -0.1729603124E+02    -0.3441308220E+01
    0.3602531039E-01    -0.1646600133E+02    -0.3441308220E+01
    0.3630253650E-01    -0.1563596828E+02    -0.3441308220E+01
    0.3657987657E-01    -0.1480593210E+02    -0.3441308220E+01
    0.3685733079E-01    -0.1397589277E+02    -0.3441308220E+01
    0.3713489933E-01    -0.1314585030E+02    -0.3441308220E+01
    0.3741258236E-01    -0.1231580467E+02    -0.3210712857E+01
    0.3769038006E-01    -0.1148575589E+02    -0.2993499758E+01
    0.3796829260E-01    -0.1065570395E+02    -0.2686915257E+01
    0.3824632016E-01    -0.9825648840E+01    -0.2834154297E+01
    0.3852446291E-01    -0.8995590562E+01    -0.2856726401E+01
    0.3880272104E-01    -0.8165529111E+01    -0.2883750194E+01
    0.3908109470E-01    -0.7335464481E+01    -0.2769806850E+01
    0.3935958410E-01    -0.6505396668E+01    -0.2239132849E+01
    0.3963818939E-01    -0.5675325667E+01    -0.1794356521E+01
    0.3991691076E-01    -0.4845251475E+01    -0.1524137226E+01
    0.4019574839E-01    -0.4015174085E+01    -0.1620254406E+01
    0.4047470245E-01    -0.3185093495E+01    -0.1590191273E+01
    0.4075377313E-01    -0.2355009698E+01    -0.1344112194E+01
    0.4103296061E-01    -0.1524922692E+01    -0.1431303662E+01
    0.4131226505E-01    -0.6948324703E+00    -0.1447151687E+01
    0.4159168666E-01     0.1352609707E+00    -0.8216427247E+00
    0.4187122560E-01     0.9653576357E+00    -0.6391251335E+00
    0.4215088206E-01     0.1795457530E+01    -0.3475840317E+00
    0.4243065622E-01     0.2625560657E+01     0.0000000000E+00
    0.4271054826E-01     0.3455667022E+01    -0.4103122614E+00
    0.4299055837E-01     0.4285776629E+01    -0.1343199706E+01
    0.4327068673E-01     0.5115889484E+01    -0.1125092288E+01
    0.4355093352E-01     0.5946005591E+01    -0.1504909422E+01
    0.4383129892E-01     0.6776124955E+01    -0.2174151570E+01
    0.4411178313E-01     0.7606247580E+01    -0.1858466658E+01
    0.4439238633E-01     0.8436373470E+01    -0.3276029367E+01
    0.4467310870E-01     0.9266502632E+01    -0.1848703863E+01
    0.4495395043E-01     0.1009663507E+02    -0.1679337765E+01
    0.4523491170E-01     0.1092677079E+02    -0.1743082125E+01
    0.4551599271E-01     0.1175690979E+02    -0.2254902372E+01
    0.4579719364E-01     0.1258705208E+02    -0.3343956690E+01
    0.4607851467E-01     0.1341719767E+02    -0.3441308220E+01
    0.4635995601E-01     0.1424734655E+02    -0.3441308220E+01
    0.4664151783E-01     0.1507749874E+02    -0.3441308220E+01
    0.4692320032E-01     0.1590765424E+02    -0.3441308220E+01
    0.4720500369E-01     0.1673781305E+02    -0.3441308220E+01
    0.4748692811E-01     0.1756797519E+02    -0.3441308220E+01
    0.4776897377E-01     0.1839814064E+02    -0.3441308220E+01
    0.4805114088E-01     0.1922830942E+02    -0.3441308220E+01
    0.4833342962E-01     0.2005848154E+02    -0.3441308220E+01
    0.4861584018E-01     0.2088865699E+02    -0.3441308220E+01
    0.4889837275E-01     0.2171883579E+02    -0.3441308220E+01
    0.4918102754E-01     0.2254901794E+02    -0.3441308220E+01
    0.4946380473E-01     0.2337920343E+02    -0.3441308220E+01
    0.4974670453E-01     0.2420939229E+02    -0.3441308220E+01
    0.5002972711E-01     0.2503958451E+02    -0.3441308220E+01
    0.5031287269E-01     0.2586978010E+02    -0.3441308220E+01
    0.5059614145E-01     0.2669997905E+02    -0.3441308220E+01
    0.5087953359E-01     0.2753018139E+02    -0.3441308220E+01
    0.5116304931E-01     0.2836038711E+02    -0.3441308220E+01
    0.3345461513E-01    -0.2393002403E+02    -0.3405134793E+01
    0.3373078445E-01    -0.2310013884E+02    -0.3405134793E+01
    0.3400706618E-01    -0.2227025056E+02    -0.3405134793E+01
    0.3428346048E-01    -0.2144035917E+02    -0.3405134793E+01
    0.3455996752E-01    -0.2061046467E+02    -0.3405134793E+01
    0.3483658747E-01    -0.1978056706E+02    -0.3405134793E+01
    0.3511332051E-01    -0.1895066633E+02    -0.3405134793E+01
    0.3539016680E-01    -0.1812076248E+02    -0.3405134793E+01
    0.3566712651E-01    -0.1729085551E+02    -0.3405134793E+01
    0.3594419982E-01    -0.1646094540E+02    -0.3405134793E+01
    0.3622138690E-01    -0.1563103216E+02    -0.3405134793E+01
    0.3649868792E-01    -0.1480111579E+02    -0.3405134793E+01
    0.3677610305E-01    -0.1397119627E+02    -0.3405134793E+01
    0.3705363248E-01    -0.1314127360E+02    -0.3405134793E+01
    0.3733127636E-01    -0.1231134778E+02    -0.3405134793E+01
    0.3760903488E-01    -0.1148141881E+02    -0.3405134793E+01
    0.3788690821E-01    -0.1065148668E+02    -0.2985695388E+01
    0.3816489653E-01    -0.9821551376E+01    -0.3215186302E+01
    0.3844300001E-01    -0.8991612906E+01    -0.3276161403E+01
    0.3872121882E-01    -0.8161671263E+01    -0.3405134793E+01
    0.3899955315E-01    -0.7331726441E+01    -0.3237549456E+01
    0.3927800318E-01    -0.6501778436E+01    -0.2589669465E+01
    0.3955656907E-01    -0.5671827244E+01    -0.3262496971E+01
    0.3983525100E-01    -0.4841872860E+01    -0.1493348618E+01
    0.4011404917E-01    -0.4011915279E+01    -0.2439377362E+01
    0.4039296373E-01    -0.3181954497E+01    -0.3405134793E+01
    0.4067199488E-01    -0.2351990510E+01    -0.1562881785E+01
    0.4095114279E-01    -0.1522023312E+01    -0.1574136470E+01
    0.4123040765E-01    -0.6920529000E+00    -0.2425044594E+01
    0.4150978962E-01     0.1379207318E+00    -0.2281397158E+01
    0.4178928890E-01     0.9678975876E+00    -0.1722693187E+01
    0.4206890567E-01     0.1797877672E+01    -0.1453422999E+01
    0.4234864010E-01     0.2627860989E+01    -0.1468453695E+01
    0.4262849239E-01     0.3457847545E+01     0.0000000000E+00
    0.4290846270E-01     0.4287837343E+01    -0.3282954368E+00
    0.4318855124E-01     0.5117830388E+01    -0.6291433579E+00
    0.4346875817E-01     0.5947826685E+01    -0.1267995960E+01
    0.4374908369E-01     0.6777826238E+01    -0.1727484988E+01
    0.4402952797E-01     0.7607829053E+01    -0.1886087852E+01
    0.4431009121E-01     0.8437835133E+01    -0.2195953997E+01
    0.4459077359E-01     0.9267844484E+01    -0.1954475484E+01
    0.4487157530E-01     0.1009785711E+02    -0.3299561271E+01
    0.4515249651E-01     0.1092787302E+02    -0.1687384574E+01
    0.4543353743E-01     0.1175789221E+02    -0.1831380895E+01
    0.4571469823E-01     0.1258791469E+02    -0.2708779720E+01
    0.4599597911E-01     0.1341794046E+02    -0.2739309211E+01
    0.4627738026E-01     0.1424796954E+02    -0.2758286002E+01
    0.4655890185E-01     0.1507800192E+02    -0.3405134793E+01
    0.4684054409E-01     0.1590803761E+02    -0.3405134793E+01
    0.4712230716E-01     0.1673807661E+02    -0.3405134793E+01
    0.4740419125E-01     0.1756811893E+02    -0.3405134793E+01
    0.4768619655E-01     0.1839816457E+02    -0.3405134793E+01
    0.4796832326E-01     0.1922821354E+02    -0.3405134793E+01
    0.4825057157E-01     0.2005826584E+02    -0.3405134793E+01
    0.4853294167E-01     0.2088832149E+02    -0.3405134793E+01
    0.4881543374E-01     0.2171838047E+02    -0.3405134793E+01
    0.4909804800E-01     0.2254844280E+02    -0.3405134793E+01
    0.4938078462E-01     0.2337850849E+02    -0.3405134793E+01
    0.4966364381E-01     0.2420857753E+02    -0.3405134793E+01
    0.4994662576E-01     0.2503864994E+02    -0.3405134793E+01
    0.5022973066E-01     0.2586872571E+02    -0.3405134793E+01
    0.5051295871E-01     0.2669880486E+02    -0.3405134793E+01
    0.5079631011E-01     0.2752888738E+02    -0.3405134793E+01
    0.5107978505E-01     0.2835897328E+02    -0.3405134793E+01
    0.3337383381E-01    -0.2392391570E+02    -0.3710834141E+01
    0.3364996437E-01    -0.2309415037E+02    -0.3710834141E+01
    0.3392620730E-01    -0.2226438193E+02    -0.3710834141E+01
    0.3420256278E-01    -0.2143461039E+02    -0.3710834141E+01
    0.3447903096E-01    -0.2060483575E+02    -0.3710834141E+01
    0.3475561203E-01    -0.1977505799E+02    -0.3710834141E+01
    0.3503230614E-01    -0.1894527711E+02    -0.3710834141E+01
    0.3530911348E-01    -0.1811549311E+02    -0.3710834141E+01
    0.3558603422E-01    -0.1728570599E+02    -0.3710834141E+01
    0.3586306852E-01    -0.1645591574E+02    -0.3710834141E+01
    0.3614021655E-01    -0.1562612236E+02    -0.3710834141E+01
    0.3641747850E-01    -0.1479632583E+02    -0.3405230236E+01
    0.3669485453E-01    -0.1396652617E+02    -0.3141750736E+01
    0.3697234482E-01    -0.1313672335E+02    -0.3456520905E+01
    0.3724994953E-01    -0.1230691739E+02    -0.3710834141E+01
    0.3752766886E-01    -0.1147710827E+02    -0.3424188924E+01
    0.3780550296E-01    -0.1064729598E+02    -0.3613197393E+01
    0.3808345201E-01    -0.9817480538E+01    -0.2568374946E+01
    0.3836151620E-01    -0.8987661922E+01    -0.2461310367E+01
    0.3863969569E-01    -0.8157840133E+01    -0.3619912782E+01
    0.3891799066E-01    -0.7328015164E+01    -0.2671798086E+01
    0.3919640130E-01    -0.6498187013E+01    -0.2576409051E+01
    0.3947492777E-01    -0.5668355675E+01    -0.2009933601E+01
    0.3975357025E-01    -0.4838521145E+01    -0.1459286716E+01
    0.4003232893E-01    -0.4008683418E+01    -0.1729031464E+01
    0.4031120398E-01    -0.3178842490E+01    -0.2333136123E+01